          ******************************************************
          *         GAMESS VERSION = 12 DEC 2003 (R2)          *
          *             FROM IOWA STATE UNIVERSITY             *
          * M.W.SCHMIDT, K.K.BALDRIDGE, J.A.BOATZ, S.T.ELBERT, *
          *   M.S.GORDON, J.H.JENSEN, S.KOSEKI, N.MATSUNAGA,   *
          *          K.A.NGUYEN, S.J.SU, T.L.WINDUS,           *
          *       TOGETHER WITH M.DUPUIS, J.A.MONTGOMERY       *
          *         J.COMPUT.CHEM.  14, 1347-1363(1993)        *
          **************** SPEC-CPU2006 VERSION ****************

     SINCE 1993, STUDENTS AND POSTDOCS WORKING AT IOWA STATE UNIVERSITY
     AND ALSO IN THEIR VARIOUS JOBS AFTER LEAVING ISU HAVE MADE IMPORTANT
     CONTRIBUTIONS TO THE CODE:
     IVANA ADAMOVIC, CHRISTINE AIKENS, ROB BELL, PRADIPTA BANDYOPADHYAY,
     BRETT BODE, GALINA CHABAN, WEI CHEN, CHEOL HO CHOI, PAUL DAY,
     TIM DUDLEY, DMITRI FEDOROV, GRAHAM FLETCHER, MARK FREITAG,
     KURT GLAESEMANN, GRANT MERRILL, HEATHER NETZLOFF, RYAN OLSON,
     MIKE PAK, JIM SHOEMAKER, TETSUYA TAKETSUGU, SIMON WEBB.

     ADDITIONAL CODE HAS BEEN PROVIDED BY COLLABORATORS IN OTHER GROUPS:
     IOWA STATE UNIVERSITY: JOE IVANIC, KLAUS RUEDENBERG
     UNIVERSITY OF TOKYO: KIMIHIKO HIRAO, HARUYUKI NAKANO, TAKAHITO
          NAKAJIMA, TAKAO TSUNEDA, MUNEAKI KAMIYA, SUSUMU YANAGISAWA
     ODENSE UNIVERSITY: FRANK JENSEN
     UNIVERSITY OF IOWA: VISVALDAS KAIRYS, HUI LI
     NATIONAL INST. OF STANDARDS AND TECHNOLOGY: WALT STEVENS, DAVID GARMER
     UNIVERSITY OF PISA: BENEDETTA MENNUCCI, JACOPO TOMASI
     UNIVERSITY OF MEMPHIS: HENRY KURTZ, PRAKASHAN KORAMBATH
     UNIVERSITY OF ALBERTA: MARIUSZ KLOBUKOWSKI
     UNIVERSITY OF NEW ENGLAND: MARK SPACKMAN
     MIE UNIVERSITY: HIROAKI UMEDA
     MICHIGAN STATE UNIVERSITY: KAROL KOWALSKI, PIOTR PIECUCH
     UNIVERSITY OF SILESIA: MONIKA MUSIAL, STANISLAW KUCHARSKI
     FACULTES UNIVERSITAIRES NOTRE-DAME DE LA PAIX:
          OLIVIER QUINET, BENOIT CHAMPAGNE
     UNIVERSITY OF CALIFORNIA - SANTA BARBARA: BERNARD KIRTMAN

 EXECUTION OF GAMESS BEGUN 

            ECHO OF THE FIRST FEW INPUT CARDS -
 INPUT CARD> $CONTRL                                                                        
 INPUT CARD> SCFTYP=ROHF                                                                    
 INPUT CARD> RUNTYP=ENERGY                                                                  
 INPUT CARD> ICHARG=2                                                                       
 INPUT CARD> MULT=2                                                                         
 INPUT CARD> INTTYP=HONDO                                                                   
 INPUT CARD> ECP=READ                                                                       
 INPUT CARD> $END                                                                           
 INPUT CARD> $GUESS GUESS=MOREAD NORB=159 $END                                              
 INPUT CARD> $SCF DIRSCF=.TRUE. $END                                                        
 INPUT CARD> $DATA                                                                          
 INPUT CARD>h2o cu2+ SBKJC(2f)+aug-cc-pVTZ                                                  
 INPUT CARD>C1                                                                              
 INPUT CARD>0 8 2.010386 0.000139 -0.000026                                                 
 INPUT CARD> S   8                                                                          
 INPUT CARD>  1        15330.00000         0.5080000000E-03                                 
 INPUT CARD>  2        2299.000000         0.3929000000E-02                                 
 INPUT CARD>  3        522.4000000         0.2024300000E-01                                 
 INPUT CARD>  4        147.3000000         0.7918100000E-01                                 
 INPUT CARD>  5        47.55000000         0.2306870000                                     
 INPUT CARD>  6        16.76000000         0.4331180000                                     
 INPUT CARD>  7        6.207000000         0.3502600000                                     
 INPUT CARD>  8       0.6882000000        -0.8154000000E-02                                 
 INPUT CARD> S   8                                                                          
 INPUT CARD>  1        15330.00000        -0.1150000000E-03                                 
 INPUT CARD>  2        2299.000000        -0.8950000000E-03                                 
 INPUT CARD>  3        522.4000000        -0.4636000000E-02                                 
 INPUT CARD>  4        147.3000000        -0.1872400000E-01                                 
 INPUT CARD>  5        47.55000000        -0.5846300000E-01                                 
 INPUT CARD>  6        16.76000000        -0.1364630000                                     
 INPUT CARD>  7        6.207000000        -0.1757400000                                     
 INPUT CARD>  8       0.6882000000         0.6034180000                                     
 INPUT CARD> S   1                                                                          
 INPUT CARD>  1        1.752000000          1.000000000                                     
 INPUT CARD> S   1                                                                          
 INPUT CARD>  1       0.2384000000          1.000000000                                     
 INPUT CARD> P   3                                                                          
 INPUT CARD>  1        34.46000000         0.1592800000E-01                                 
 INPUT CARD>  2        7.749000000         0.9974000000E-01                                 
 INPUT CARD>  3        2.280000000         0.3104920000                                     
 INPUT CARD> P   1                                                                          
 INPUT CARD>  1       0.7156000000          1.000000000                                     
 INPUT CARD> P   1                                                                          
 INPUT CARD>  1       0.2140000000          1.000000000                                     
 INPUT CARD> D   1                                                                          
 INPUT CARD>  1        2.314000000          1.000000000                                     
 INPUT CARD> D   1                                                                          
 INPUT CARD>  1       0.6450000000          1.000000000                                     
 INPUT CARD> F   1                                                                          
 INPUT CARD>  1        1.428000000          1.000000000                                     

 ..... DONE SETTING UP THE RUN .....
LOCMEM is    1   1
   80000000 WORDS OF MEMORY AVAILABLE


     RUN TITLE
     ---------
 h2o cu2+ SBKJC(2f)+aug-cc-pVTZ                                                  

 THE POINT GROUP OF THE MOLECULE IS C1      
 THE ORDER OF THE PRINCIPAL AXIS IS     0
 *** WARNING! ATOM   1 SHELL    1 TYPE S HAS NORMALIZATION   1.02401242
 *** WARNING! ATOM   1 SHELL    2 TYPE S HAS NORMALIZATION   1.71509575
 *** WARNING! ATOM   1 SHELL    5 TYPE P HAS NORMALIZATION   2.58434766
 *** WARNING! ATOM   2 SHELL   15 TYPE S HAS NORMALIZATION   4.20152657
 *** WARNING! ATOM   3 SHELL   24 TYPE S HAS NORMALIZATION   4.20152657

 ATOM      ATOMIC                      COORDINATES (BOHR)
           CHARGE         X                   Y                   Z
 0           8.0     3.7990786696        0.0002626719       -0.0000491329
 1           1.0     4.8901894473       -0.8546229088       -1.2845903730
 2           1.0     4.8900722843        0.8544093697        1.2848246991
 3          29.0    -0.0000037795        0.0000000000       -0.0000566918

          INTERNUCLEAR DISTANCES (ANGS.)
          ------------------------------

                    0              1              2              3         

  1  0               0.0000000      1.0000468 *    0.9999538 *    2.0103880 *  
  2  1               1.0000468 *    0.0000000      1.6329800 *    2.7135184 *  
  3  2               0.9999538 *    1.6329800 *    0.0000000      2.7134865 *  
  4  3               2.0103880 *    2.7135184 *    2.7134865 *    0.0000000    

  * ... LESS THAN  3.000


     ATOMIC BASIS SET
     ----------------
 THE CONTRACTED PRIMITIVE FUNCTIONS HAVE BEEN UNNORMALIZED
 THE CONTRACTED BASIS FUNCTIONS ARE NOW NORMALIZED TO UNITY

 SHELL TYPE PRIMITIVE    EXPONENT          CONTRACTION COEFFICIENTS

 0         

   1   S    1         15330.0000000      0.000520198307
   1   S    2          2299.0000000      0.004023344781
   1   S    3           522.4000000      0.020729083329
   1   S    4           147.3000000      0.081082327080
   1   S    5            47.5500000      0.236226352118
   1   S    6            16.7600000      0.443518209420
   1   S    7             6.2070000      0.358670588689
   1   S    8             0.6882000     -0.008349797237

   2   S    9         15330.0000000     -0.000197236012
   2   S   10          2299.0000000     -0.001535010700
   2   S   11           522.4000000     -0.007951183914
   2   S   12           147.3000000     -0.032113452892
   2   S   13            47.5500000     -0.100269643049
   2   S   14            16.7600000     -0.234047111838
   2   S   15             6.2070000     -0.301410927756
   2   S   16             0.6882000      1.034919649508

   3   S   17             1.7520000      1.000000000000

   4   S   18             0.2384000      1.000000000000

   5   P   19            34.4600000      0.041163489568
   5   P   20             7.7490000      0.257762835858
   5   P   21             2.2800000      0.802419274427

   6   P   22             0.7156000      1.000000000000

   7   P   23             0.2140000      1.000000000000

   8   D   24             2.3140000      1.000000000000

   9   D   25             0.6450000      1.000000000000

  10   F   26             1.4280000      1.000000000000

  11   S   27             0.0737600      1.000000000000

  12   P   28             0.0597400      1.000000000000

  13   D   29             0.2140000      1.000000000000

  14   F   30             0.5000000      1.000000000000

 1         

  15   S   31            33.8700000      0.025494863235
  15   S   32             5.0950000      0.190362765893
  15   S   33             1.1590000      0.852162022245

  16   S   34             0.3258000      1.000000000000

  17   S   35             0.1027000      1.000000000000

  18   P   36             1.4070000      1.000000000000

  19   P   37             0.3880000      1.000000000000

  20   D   38             1.0570000      1.000000000000

  21   S   39             0.0252600      1.000000000000

  22   P   40             0.1020000      1.000000000000

  23   D   41             0.2470000      1.000000000000

 2         

  24   S   42            33.8700000      0.025494863235
  24   S   43             5.0950000      0.190362765893
  24   S   44             1.1590000      0.852162022245

  25   S   45             0.3258000      1.000000000000

  26   S   46             0.1027000      1.000000000000

  27   P   47             1.4070000      1.000000000000

  28   P   48             0.3880000      1.000000000000

  29   D   49             1.0570000      1.000000000000

  30   S   50             0.0252600      1.000000000000

  31   P   51             0.1020000      1.000000000000

  32   D   52             0.2470000      1.000000000000

 3         

  33   L   53            83.4200000     -0.004828997631     -0.008283995376
  33   L   54             7.9700000     -0.644798683722     -0.321894820337
  33   L   55             5.6000000      0.265239869898      0.618132654993
  33   L   56             1.9320000      1.189790416400      0.722183596918

  34   D   57            65.8000000      0.025596998208
  34   D   58            18.8200000      0.148608989597
  34   D   59             6.5380000      0.411785971174
  34   D   60             2.3480000      0.605506957613

  35   D   61             0.7691000      1.000000000000

  36   L   62             2.8660000     -0.074774006131     -0.000541000081
  36   L   63             0.1319000      1.017037083388      1.000058150276

  37   L   64             0.0440000      1.000000000000      1.000000000000

  38   L   65             0.6874000      1.000000000000      1.000000000000

  39   D   66             0.2065000      1.000000000000

  40   F   67             3.1500000      1.000000000000

  41   F   68             0.9000000      1.000000000000

 TOTAL NUMBER OF BASIS SET SHELLS             =   41
 NUMBER OF CARTESIAN GAUSSIAN BASIS FUNCTIONS =  159
 NUMBER OF ELECTRONS                          =   37
 CHARGE OF MOLECULE                           =    2
 SPIN MULTIPLICITY                            =    2
 NUMBER OF OCCUPIED ORBITALS (ALPHA)          =   19
 NUMBER OF OCCUPIED ORBITALS (BETA )          =   18
 TOTAL NUMBER OF ATOMS                        =    4
 THE NUCLEAR REPULSION ENERGY IS       81.1692127556
 NOTE THIS RUN IS USING CORE POTENTIALS, AND THE NUMBER OF ELECTRONS,
 OCCUPIED ORBITALS, AND NUCLEAR REPULSION ENERGY WILL BE ADJUSTED BELOW
 AFTER REMOVAL OF THE CORE CHARGES.

     $CONTRL OPTIONS
     ---------------
 SCFTYP=ROHF         RUNTYP=ENERGY       EXETYP=RUN     
 MPLEVL=       0     CITYP =NONE         CCTYP =NONE    
 MULT  =       2     ICHARG=       2     NZVAR =       0     COORD =UNIQUE  
 ECP   =READ         RELWFN=NONE         LOCAL =NONE         NUMGRD=       F
 ISPHER=      -1     NOSYM =       0     MAXIT =      30     UNITS =ANGS    
 PLTORB=       F     MOLPLT=       F     AIMPAC=       F     FRIEND=        
 NPRINT=       7     IREST =       0     GEOM  =INPUT   
 NORMF =       0     NORMP =       0     ITOL  =      20     ICUT  =       9
 INTTYP=HONDO        QMTTOL= 1.0E-06

     $SYSTEM OPTIONS
     ---------------
  REPLICATED MEMORY=    80000000 WORDS (ON EVERY NODE).
 DISTRIBUTED MEMDDI=           0 MILLION WORDS IN AGGREGATE,
 MEMDDI DISTRIBUTED OVER   1 PROCESSORS IS           0 WORDS/PROCESSOR.
 TOTAL MEMORY REQUESTED ON EACH PROCESSOR=    80000000 WORDS.
 TIMLIM=     36000.0 SECONDS.
 COREFL=F     KDIAG= 0

          --------------
          ECP POTENTIALS
          --------------

 PARAMETERS FOR "ECP-3   " ON ATOM    4 WITH ZCORE  10 AND LMAX  2 ARE
 FOR L= 2      COEFF    N           ZETA
    1       -4.00276    1       23.29060
 FOR L= 0      COEFF    N           ZETA
    1        3.32465    0        2.62059
    2      224.32330    2        7.81082
    3     -180.30470    2        6.63324
 FOR L= 1      COEFF    N           ZETA
    1        3.42130    0       51.15734
    2      105.70126    2       14.73406

 THE ECP RUN REMOVES   10 CORE ELECTRONS, AND THE SAME NUMBER OF PROTONS.
 NUMBER OF ELECTRONS KEPT IN THE CALCULATION IS =   27
 NUMBER OF OCCUPIED ORBITALS (ALPHA) KEPT IS    =   14
 NUMBER OF OCCUPIED ORBITALS (BETA ) KEPT IS    =   13
 THE ADJUSTED NUCLEAR REPULSION ENERGY=       56.2111703440
          ECP ANGULAR INTS.........     0.00 SECONDS

          ----------------
          PROPERTIES INPUT
          ----------------

     MOMENTS            FIELD           POTENTIAL          DENSITY
 IEMOM =       1   IEFLD =       0   IEPOT =       0   IEDEN =       0
 WHERE =COMASS     WHERE =NUCLEI     WHERE =NUCLEI     WHERE =NUCLEI  
 OUTPUT=BOTH       OUTPUT=BOTH       OUTPUT=BOTH       OUTPUT=BOTH    
 IEMINT=       0   IEFINT=       0                     IEDINT=       0
                                                       MORB  =       0
          EXTRAPOLATION IN EFFECT
          SOSCF IN EFFECT

     -------------------------------
     INTEGRAL TRANSFORMATION OPTIONS
     -------------------------------
     NWORD  =       0     CUTOFF = 1.0E-09
     MPTRAN =       0     DIRTRF =       T
     AOINTS =DUP     

          ----------------------
          INTEGRAL INPUT OPTIONS
          ----------------------
 NOPK  =       1 NORDER=       0 SCHWRZ=       T

     ------------------------------------------
     THE POINT GROUP IS C1 , NAXIS= 0, ORDER= 1
     ------------------------------------------

     DIMENSIONS OF THE SYMMETRY SUBSPACES ARE
 A   =  159

 ..... DONE SETTING UP THE RUN .....
